<?xml version="1.0" encoding="UTF-8"?>

<!-- generated on 2024-12-11 11:47:16 by Eclipse SUMO sumo Version 1.21.0
<sumoConfiguration xmlns:xsi="http://www.w3.org/2001/XMLSchema-instance" xsi:noNamespaceSchemaLocation="http://sumo.dlr.de/xsd/sumoConfiguration.xsd">

    <input>
        <net-file value="C:\Users\Kisha\Sumo\2024-12-11-11-46-08\osm.net.xml.gz"/>
        <route-files value="C:\Users\Kisha\Sumo\2024-12-11-11-46-08\trips.trips.xml"/>
        <additional-files value="C:\Users\Kisha\Sumo\2024-12-11-11-46-08\osm_stops.add.xml"/>
    </input>

    <output>
        <vehroute-output value="C:\Users\Kisha\Sumo\2024-12-11-11-46-08\vehroutes.xml"/>
        <stop-output value="C:\Users\Kisha\Sumo\2024-12-11-11-46-08\stopinfos.xml"/>
    </output>

    <time>
        <begin value="0.0"/>
    </time>

    <processing>
        <ignore-route-errors value="true"/>
    </processing>

    <routing>
        <device.rerouting.adaptation-interval value="0"/>
    </routing>

    <report>
        <aggregate-warnings value="5"/>
        <error-log value="C:\Users\Kisha\Sumo\2024-12-11-11-46-08\trips.trips.xml.errorlog"/>
        <no-step-log value="true"/>
    </report>

</sumoConfiguration>
-->

<routes xmlns:xsi="http://www.w3.org/2001/XMLSchema-instance" xsi:noNamespaceSchemaLocation="http://sumo.dlr.de/xsd/routes_file.xsd">
    <vehicle id="1_train_12952:0" type="pt_train" depart="52.00" departLane="0" arrival="187.00">
        <route edges="966956028"/>
        <stop busStop="8490546712" duration="30.00"/>
    </vehicle>

    <vehicle id="4_train_12954:0" type="pt_train" depart="383.00" departLane="0" arrival="518.00">
        <route edges="966956028"/>
        <stop busStop="8490546712" duration="30.00"/>
    </vehicle>

    <vehicle id="0_train_12951:0" type="pt_train" depart="15.00" departLane="0" arrival="663.00">
        <route edges="1154036267 227351246#1 227398478 227351246#3 -1154036265 -29137959#5 -29137959#4 -29137959#3 710420527#0 710420527#1 710420527#2 -29137959#1 -29137959#0 -1314235072 -29548905#0 -1311243637 -1311408264 966956030 966956029#0 966956029#1 966956029#2 1314251559#0 914029913 873284382#4 873284382#5 873284382#6 873284382#7 873284382#8 873284382#9 1314251559#6 914022140 1314251558#0 1314251558#1 914022139 -975136905#2 -975136905#1 -975136905#0 807655237 29548913#0 29548913#1 29548913#2 29548913#3"/>
        <stop busStop="8490537129" duration="30.00"/>
    </vehicle>

    <vehicle id="7_train_22414:0" type="pt_train" depart="535.00" departLane="0" arrival="682.00">
        <route edges="966956030"/>
        <stop busStop="8490537129" duration="30.00"/>
    </vehicle>

    <vehicle id="2_train_12431:0" type="pt_train" depart="133.00" departLane="0" arrival="781.00">
        <route edges="1154036267 227351246#1 227398478 227351246#3 -1154036265 -29137959#5 -29137959#4 -29137959#3 710420527#0 710420527#1 710420527#2 -29137959#1 -29137959#0 -1314235072 -29548905#0 -1311243637 -1311408264 966956030 966956029#0 966956029#1 966956029#2 1314251559#0 914029913 873284382#4 873284382#5 873284382#6 873284382#7 873284382#8 873284382#9 1314251559#6 914022140 1314251558#0 1314251558#1 914022139 -975136905#2 -975136905#1 -975136905#0 807655237 29548913#0 29548913#1 29548913#2 29548913#3"/>
        <stop busStop="8490537129" duration="30.00"/>
    </vehicle>

    <vehicle id="3_train_12432:0" type="pt_train" depart="165.00" departLane="0" arrival="806.00">
        <route edges="28939050#0 28939050#1 28939050#2 873284381#0 873284381#1 873284381#2 873284381#3 873284381#4 873284381#5 873284381#6 873284381#7 873284381#8 873284381#9 873284381#10 966956024 966956026 -966956027#1 -966956027#0 -1311243644#2 -1311243644#1 -1314235077 -966956029#0 914022134#0 914022134#1 914022134#2 -1314235074 -227398463#0 29548905#0 1314235072 -914023379 29137959#1 -710420527#2 -710420527#1 -710420527#0 29137959#3 29137959#4 29137959#5 29137959#6 584880991 29137959#8 29137959#9"/>
        <stop busStop="7553684175" duration="30.00"/>
    </vehicle>

    <vehicle id="5_train_12953:0" type="pt_train" depart="406.00" departLane="0" arrival="1047.00">
        <route edges="1154036267 227351246#1 227398478 227351246#3 -1154036265 -29137959#5 -29137959#4 -29137959#3 710420527#0 710420527#1 710420527#2 -29137959#1 -29137959#0 -1314235072 -29548905#0 -1311243637 -1311408264 966956030 966956029#0 966956029#1 966956029#2 1314251559#0 914029913 873284382#4 873284382#5 873284382#6 873284382#7 873284382#8 873284382#9 1314251559#6 914022140 1314251558#0 1314251558#1 914022139 -975136905#2 -975136905#1 -975136905#0 807655237 29548913#0 29548913#1 29548913#2 29548913#3"/>
        <stop busStop="8490537129" duration="30.00"/>
    </vehicle>

    <vehicle id="6_train_22413:0" type="pt_train" depart="441.00" departLane="0" arrival="1114.00">
        <route edges="1154036267 227351246#1 227398478 227351246#3 -1154036265 -29137959#5 -29137959#4 -29137959#3 710420527#0 710420527#1 710420527#2 -29137959#1 -29137959#0 -1314235072 -29548905#0 -1311243637 -1311408264 966956030 966956029#0 966956029#1 966956029#2 1314251559#0 914029913 873284382#4 873284382#5 873284382#6 873284382#7 873284382#8 873284382#9 1314251559#6 914022140 1314251558#0 1314251558#1 914022139 -975136905#2 -975136905#1 -975136905#0 807655237 29548913#0 29548913#1 29548913#2 29548913#3"/>
        <stop busStop="8490537129" duration="30.00"/>
    </vehicle>

</routes>
